phonopy:
  version: "2.26.7"
  frequency_unit_conversion_factor: 15.633302
  symmetry_tolerance: 1.00000e-03

space_group:
  type: "Fd-3m"
  number: 227
  Hall_symbol: "F 4d 2 3 -1d"

primitive_matrix:
- [  1.000000000000000, -0.000000000000000,  0.000000000000000 ]
- [ -0.000000000000000,  1.000000000000000,  0.000000000000000 ]
- [  0.000000000000000,  0.000000000000000,  1.000000000000000 ]

supercell_matrix:
- [  -3,   3,   3 ]
- [   3,  -3,   3 ]
- [   3,   3,  -3 ]

primitive_cell:
  lattice:
  - [    -0.000000009824507,     2.730544568819941,     2.730544574884382 ] # a
  - [     2.730544571941417,    -0.000000010946328,     2.730544576006202 ] # b
  - [     2.730544571323813,     2.730544569324155,    -0.000000010328730 ] # c
  points:
  - symbol: Si # 1
    coordinates: [  0.000000000771604,  0.000000001233645,  0.000000001055535 ]
    mass: 28.085500
  - symbol: Si # 2
    coordinates: [  0.249999998326906,  0.249999999477366,  0.249999999400093 ]
    mass: 28.085500
  reciprocal_lattice: # without 2pi
  - [    -0.183113655237842,     0.183113656064599,     0.183113655699327 ] # a*
  - [     0.183113655855269,    -0.183113655296711,     0.183113655548866 ] # b*
  - [     0.183113655938103,     0.183113655996972,    -0.183113654931440 ] # c*

unit_cell:
  lattice:
  - [    -0.000000009824507,     2.730544568819942,     2.730544574884383 ] # a
  - [     2.730544571941418,    -0.000000010946328,     2.730544576006203 ] # b
  - [     2.730544571323814,     2.730544569324155,    -0.000000010328730 ] # c
  points:
  - symbol: Si # 1
    coordinates: [  0.000000000771604,  0.000000001233645,  0.000000001055535 ]
    mass: 28.085500
    reduced_to: 1
  - symbol: Si # 2
    coordinates: [  0.249999998326906,  0.249999999477366,  0.249999999400093 ]
    mass: 28.085500
    reduced_to: 2

supercell:
  lattice:
  - [    16.383267459269216,    -0.000000031326344,    -0.000000027620727 ] # a
  - [    -0.000000031326336,    16.383267447271276,    -0.000000034351650 ] # b
  - [    -0.000000027620709,    -0.000000034351626,    16.383267483657946 ] # c
  points:
  - symbol: Si # 1
    coordinates: [  0.000000000381530,  0.000000000304523,  0.000000000334208 ]
    mass: 28.085500
    reduced_to: 1
  - symbol: Si # 2
    coordinates: [  0.000000000381530,  0.166666666971190,  0.166666667000875 ]
    mass: 28.085500
    reduced_to: 1
  - symbol: Si # 3
    coordinates: [  0.000000000381530,  0.333333333637857,  0.333333333667542 ]
    mass: 28.085500
    reduced_to: 1
  - symbol: Si # 4
    coordinates: [  0.000000000381530,  0.500000000304523,  0.500000000334208 ]
    mass: 28.085500
    reduced_to: 1
  - symbol: Si # 5
    coordinates: [  0.000000000381530,  0.666666666971190,  0.666666667000875 ]
    mass: 28.085500
    reduced_to: 1
  - symbol: Si # 6
    coordinates: [  0.000000000381530,  0.833333333637856,  0.833333333667541 ]
    mass: 28.085500
    reduced_to: 1
  - symbol: Si # 7
    coordinates: [  0.166666667048197,  0.000000000304523,  0.166666667000875 ]
    mass: 28.085500
    reduced_to: 1
  - symbol: Si # 8
    coordinates: [  0.166666667048197,  0.166666666971190,  0.333333333667542 ]
    mass: 28.085500
    reduced_to: 1
  - symbol: Si # 9
    coordinates: [  0.166666667048197,  0.333333333637857,  0.500000000334208 ]
    mass: 28.085500
    reduced_to: 1
  - symbol: Si # 10
    coordinates: [  0.166666667048197,  0.500000000304523,  0.666666667000875 ]
    mass: 28.085500
    reduced_to: 1
  - symbol: Si # 11
    coordinates: [  0.166666667048197,  0.666666666971190,  0.833333333667541 ]
    mass: 28.085500
    reduced_to: 1
  - symbol: Si # 12
    coordinates: [  0.166666667048197,  0.833333333637856,  0.000000000334208 ]
    mass: 28.085500
    reduced_to: 1
  - symbol: Si # 13
    coordinates: [  0.333333333714863,  0.000000000304523,  0.333333333667542 ]
    mass: 28.085500
    reduced_to: 1
  - symbol: Si # 14
    coordinates: [  0.333333333714863,  0.166666666971190,  0.500000000334208 ]
    mass: 28.085500
    reduced_to: 1
  - symbol: Si # 15
    coordinates: [  0.333333333714863,  0.333333333637857,  0.666666667000875 ]
    mass: 28.085500
    reduced_to: 1
  - symbol: Si # 16
    coordinates: [  0.333333333714863,  0.500000000304523,  0.833333333667542 ]
    mass: 28.085500
    reduced_to: 1
  - symbol: Si # 17
    coordinates: [  0.333333333714863,  0.666666666971190,  0.000000000334208 ]
    mass: 28.085500
    reduced_to: 1
  - symbol: Si # 18
    coordinates: [  0.333333333714863,  0.833333333637856,  0.166666667000875 ]
    mass: 28.085500
    reduced_to: 1
  - symbol: Si # 19
    coordinates: [  0.500000000381530,  0.000000000304523,  0.500000000334208 ]
    mass: 28.085500
    reduced_to: 1
  - symbol: Si # 20
    coordinates: [  0.500000000381530,  0.166666666971190,  0.666666667000875 ]
    mass: 28.085500
    reduced_to: 1
  - symbol: Si # 21
    coordinates: [  0.500000000381530,  0.333333333637857,  0.833333333667542 ]
    mass: 28.085500
    reduced_to: 1
  - symbol: Si # 22
    coordinates: [  0.500000000381530,  0.500000000304523,  0.000000000334208 ]
    mass: 28.085500
    reduced_to: 1
  - symbol: Si # 23
    coordinates: [  0.500000000381530,  0.666666666971190,  0.166666667000875 ]
    mass: 28.085500
    reduced_to: 1
  - symbol: Si # 24
    coordinates: [  0.500000000381530,  0.833333333637856,  0.333333333667541 ]
    mass: 28.085500
    reduced_to: 1
  - symbol: Si # 25
    coordinates: [  0.666666667048197,  0.000000000304523,  0.666666667000875 ]
    mass: 28.085500
    reduced_to: 1
  - symbol: Si # 26
    coordinates: [  0.666666667048197,  0.166666666971190,  0.833333333667542 ]
    mass: 28.085500
    reduced_to: 1
  - symbol: Si # 27
    coordinates: [  0.666666667048197,  0.333333333637857,  0.000000000334208 ]
    mass: 28.085500
    reduced_to: 1
  - symbol: Si # 28
    coordinates: [  0.666666667048197,  0.500000000304523,  0.166666667000875 ]
    mass: 28.085500
    reduced_to: 1
  - symbol: Si # 29
    coordinates: [  0.666666667048197,  0.666666666971190,  0.333333333667541 ]
    mass: 28.085500
    reduced_to: 1
  - symbol: Si # 30
    coordinates: [  0.666666667048197,  0.833333333637856,  0.500000000334208 ]
    mass: 28.085500
    reduced_to: 1
  - symbol: Si # 31
    coordinates: [  0.833333333714863,  0.000000000304523,  0.833333333667541 ]
    mass: 28.085500
    reduced_to: 1
  - symbol: Si # 32
    coordinates: [  0.833333333714863,  0.166666666971190,  0.000000000334208 ]
    mass: 28.085500
    reduced_to: 1
  - symbol: Si # 33
    coordinates: [  0.833333333714863,  0.333333333637857,  0.166666667000875 ]
    mass: 28.085500
    reduced_to: 1
  - symbol: Si # 34
    coordinates: [  0.833333333714863,  0.500000000304523,  0.333333333667541 ]
    mass: 28.085500
    reduced_to: 1
  - symbol: Si # 35
    coordinates: [  0.833333333714863,  0.666666666971190,  0.500000000334208 ]
    mass: 28.085500
    reduced_to: 1
  - symbol: Si # 36
    coordinates: [  0.833333333714863,  0.833333333637856,  0.666666667000875 ]
    mass: 28.085500
    reduced_to: 1
  - symbol: Si # 37
    coordinates: [  0.166666667048197,  0.166666666971190,  0.000000000334208 ]
    mass: 28.085500
    reduced_to: 1
  - symbol: Si # 38
    coordinates: [  0.166666667048197,  0.333333333637857,  0.166666667000875 ]
    mass: 28.085500
    reduced_to: 1
  - symbol: Si # 39
    coordinates: [  0.166666667048197,  0.500000000304523,  0.333333333667542 ]
    mass: 28.085500
    reduced_to: 1
  - symbol: Si # 40
    coordinates: [  0.166666667048197,  0.666666666971190,  0.500000000334208 ]
    mass: 28.085500
    reduced_to: 1
  - symbol: Si # 41
    coordinates: [  0.166666667048197,  0.833333333637856,  0.666666667000875 ]
    mass: 28.085500
    reduced_to: 1
  - symbol: Si # 42
    coordinates: [  0.166666667048197,  0.000000000304523,  0.833333333667541 ]
    mass: 28.085500
    reduced_to: 1
  - symbol: Si # 43
    coordinates: [  0.333333333714863,  0.166666666971190,  0.166666667000875 ]
    mass: 28.085500
    reduced_to: 1
  - symbol: Si # 44
    coordinates: [  0.333333333714863,  0.333333333637857,  0.333333333667542 ]
    mass: 28.085500
    reduced_to: 1
  - symbol: Si # 45
    coordinates: [  0.333333333714863,  0.500000000304523,  0.500000000334208 ]
    mass: 28.085500
    reduced_to: 1
  - symbol: Si # 46
    coordinates: [  0.333333333714863,  0.666666666971190,  0.666666667000875 ]
    mass: 28.085500
    reduced_to: 1
  - symbol: Si # 47
    coordinates: [  0.333333333714863,  0.833333333637856,  0.833333333667541 ]
    mass: 28.085500
    reduced_to: 1
  - symbol: Si # 48
    coordinates: [  0.333333333714863,  0.000000000304523,  0.000000000334208 ]
    mass: 28.085500
    reduced_to: 1
  - symbol: Si # 49
    coordinates: [  0.500000000381530,  0.166666666971190,  0.333333333667542 ]
    mass: 28.085500
    reduced_to: 1
  - symbol: Si # 50
    coordinates: [  0.500000000381530,  0.333333333637857,  0.500000000334208 ]
    mass: 28.085500
    reduced_to: 1
  - symbol: Si # 51
    coordinates: [  0.500000000381530,  0.500000000304523,  0.666666667000875 ]
    mass: 28.085500
    reduced_to: 1
  - symbol: Si # 52
    coordinates: [  0.500000000381530,  0.666666666971190,  0.833333333667542 ]
    mass: 28.085500
    reduced_to: 1
  - symbol: Si # 53
    coordinates: [  0.500000000381530,  0.833333333637856,  0.000000000334208 ]
    mass: 28.085500
    reduced_to: 1
  - symbol: Si # 54
    coordinates: [  0.500000000381530,  0.000000000304523,  0.166666667000875 ]
    mass: 28.085500
    reduced_to: 1
  - symbol: Si # 55
    coordinates: [  0.666666667048197,  0.166666666971190,  0.500000000334208 ]
    mass: 28.085500
    reduced_to: 1
  - symbol: Si # 56
    coordinates: [  0.666666667048197,  0.333333333637857,  0.666666667000875 ]
    mass: 28.085500
    reduced_to: 1
  - symbol: Si # 57
    coordinates: [  0.666666667048197,  0.500000000304523,  0.833333333667542 ]
    mass: 28.085500
    reduced_to: 1
  - symbol: Si # 58
    coordinates: [  0.666666667048197,  0.666666666971190,  0.000000000334208 ]
    mass: 28.085500
    reduced_to: 1
  - symbol: Si # 59
    coordinates: [  0.666666667048197,  0.833333333637856,  0.166666667000875 ]
    mass: 28.085500
    reduced_to: 1
  - symbol: Si # 60
    coordinates: [  0.666666667048197,  0.000000000304523,  0.333333333667541 ]
    mass: 28.085500
    reduced_to: 1
  - symbol: Si # 61
    coordinates: [  0.833333333714863,  0.166666666971190,  0.666666667000875 ]
    mass: 28.085500
    reduced_to: 1
  - symbol: Si # 62
    coordinates: [  0.833333333714863,  0.333333333637857,  0.833333333667542 ]
    mass: 28.085500
    reduced_to: 1
  - symbol: Si # 63
    coordinates: [  0.833333333714863,  0.500000000304523,  0.000000000334208 ]
    mass: 28.085500
    reduced_to: 1
  - symbol: Si # 64
    coordinates: [  0.833333333714863,  0.666666666971190,  0.166666667000875 ]
    mass: 28.085500
    reduced_to: 1
  - symbol: Si # 65
    coordinates: [  0.833333333714863,  0.833333333637856,  0.333333333667541 ]
    mass: 28.085500
    reduced_to: 1
  - symbol: Si # 66
    coordinates: [  0.833333333714863,  0.000000000304523,  0.500000000334208 ]
    mass: 28.085500
    reduced_to: 1
  - symbol: Si # 67
    coordinates: [  0.000000000381530,  0.166666666971190,  0.833333333667541 ]
    mass: 28.085500
    reduced_to: 1
  - symbol: Si # 68
    coordinates: [  0.000000000381530,  0.333333333637857,  0.000000000334208 ]
    mass: 28.085500
    reduced_to: 1
  - symbol: Si # 69
    coordinates: [  0.000000000381530,  0.500000000304523,  0.166666667000875 ]
    mass: 28.085500
    reduced_to: 1
  - symbol: Si # 70
    coordinates: [  0.000000000381530,  0.666666666971190,  0.333333333667541 ]
    mass: 28.085500
    reduced_to: 1
  - symbol: Si # 71
    coordinates: [  0.000000000381530,  0.833333333637856,  0.500000000334208 ]
    mass: 28.085500
    reduced_to: 1
  - symbol: Si # 72
    coordinates: [  0.000000000381530,  0.000000000304523,  0.666666667000875 ]
    mass: 28.085500
    reduced_to: 1
  - symbol: Si # 73
    coordinates: [  0.333333333714863,  0.333333333637857,  0.000000000334208 ]
    mass: 28.085500
    reduced_to: 1
  - symbol: Si # 74
    coordinates: [  0.333333333714863,  0.500000000304523,  0.166666667000875 ]
    mass: 28.085500
    reduced_to: 1
  - symbol: Si # 75
    coordinates: [  0.333333333714863,  0.666666666971190,  0.333333333667542 ]
    mass: 28.085500
    reduced_to: 1
  - symbol: Si # 76
    coordinates: [  0.333333333714863,  0.833333333637857,  0.500000000334208 ]
    mass: 28.085500
    reduced_to: 1
  - symbol: Si # 77
    coordinates: [  0.333333333714863,  0.000000000304523,  0.666666667000875 ]
    mass: 28.085500
    reduced_to: 1
  - symbol: Si # 78
    coordinates: [  0.333333333714863,  0.166666666971190,  0.833333333667541 ]
    mass: 28.085500
    reduced_to: 1
  - symbol: Si # 79
    coordinates: [  0.500000000381530,  0.333333333637857,  0.166666667000875 ]
    mass: 28.085500
    reduced_to: 1
  - symbol: Si # 80
    coordinates: [  0.500000000381530,  0.500000000304523,  0.333333333667542 ]
    mass: 28.085500
    reduced_to: 1
  - symbol: Si # 81
    coordinates: [  0.500000000381530,  0.666666666971190,  0.500000000334208 ]
    mass: 28.085500
    reduced_to: 1
  - symbol: Si # 82
    coordinates: [  0.500000000381530,  0.833333333637857,  0.666666667000875 ]
    mass: 28.085500
    reduced_to: 1
  - symbol: Si # 83
    coordinates: [  0.500000000381530,  0.000000000304523,  0.833333333667541 ]
    mass: 28.085500
    reduced_to: 1
  - symbol: Si # 84
    coordinates: [  0.500000000381530,  0.166666666971190,  0.000000000334208 ]
    mass: 28.085500
    reduced_to: 1
  - symbol: Si # 85
    coordinates: [  0.666666667048197,  0.333333333637857,  0.333333333667542 ]
    mass: 28.085500
    reduced_to: 1
  - symbol: Si # 86
    coordinates: [  0.666666667048197,  0.500000000304523,  0.500000000334208 ]
    mass: 28.085500
    reduced_to: 1
  - symbol: Si # 87
    coordinates: [  0.666666667048197,  0.666666666971190,  0.666666667000875 ]
    mass: 28.085500
    reduced_to: 1
  - symbol: Si # 88
    coordinates: [  0.666666667048197,  0.833333333637857,  0.833333333667542 ]
    mass: 28.085500
    reduced_to: 1
  - symbol: Si # 89
    coordinates: [  0.666666667048197,  0.000000000304523,  0.000000000334208 ]
    mass: 28.085500
    reduced_to: 1
  - symbol: Si # 90
    coordinates: [  0.666666667048197,  0.166666666971190,  0.166666667000875 ]
    mass: 28.085500
    reduced_to: 1
  - symbol: Si # 91
    coordinates: [  0.833333333714863,  0.333333333637857,  0.500000000334208 ]
    mass: 28.085500
    reduced_to: 1
  - symbol: Si # 92
    coordinates: [  0.833333333714863,  0.500000000304523,  0.666666667000875 ]
    mass: 28.085500
    reduced_to: 1
  - symbol: Si # 93
    coordinates: [  0.833333333714863,  0.666666666971190,  0.833333333667542 ]
    mass: 28.085500
    reduced_to: 1
  - symbol: Si # 94
    coordinates: [  0.833333333714863,  0.833333333637857,  0.000000000334208 ]
    mass: 28.085500
    reduced_to: 1
  - symbol: Si # 95
    coordinates: [  0.833333333714863,  0.000000000304523,  0.166666667000875 ]
    mass: 28.085500
    reduced_to: 1
  - symbol: Si # 96
    coordinates: [  0.833333333714863,  0.166666666971190,  0.333333333667541 ]
    mass: 28.085500
    reduced_to: 1
  - symbol: Si # 97
    coordinates: [  0.000000000381530,  0.333333333637857,  0.666666667000875 ]
    mass: 28.085500
    reduced_to: 1
  - symbol: Si # 98
    coordinates: [  0.000000000381530,  0.500000000304523,  0.833333333667542 ]
    mass: 28.085500
    reduced_to: 1
  - symbol: Si # 99
    coordinates: [  0.000000000381530,  0.666666666971190,  0.000000000334208 ]
    mass: 28.085500
    reduced_to: 1
  - symbol: Si # 100
    coordinates: [  0.000000000381530,  0.833333333637857,  0.166666667000875 ]
    mass: 28.085500
    reduced_to: 1
  - symbol: Si # 101
    coordinates: [  0.000000000381530,  0.000000000304523,  0.333333333667541 ]
    mass: 28.085500
    reduced_to: 1
  - symbol: Si # 102
    coordinates: [  0.000000000381530,  0.166666666971190,  0.500000000334208 ]
    mass: 28.085500
    reduced_to: 1
  - symbol: Si # 103
    coordinates: [  0.166666667048197,  0.333333333637857,  0.833333333667541 ]
    mass: 28.085500
    reduced_to: 1
  - symbol: Si # 104
    coordinates: [  0.166666667048197,  0.500000000304523,  0.000000000334208 ]
    mass: 28.085500
    reduced_to: 1
  - symbol: Si # 105
    coordinates: [  0.166666667048197,  0.666666666971190,  0.166666667000875 ]
    mass: 28.085500
    reduced_to: 1
  - symbol: Si # 106
    coordinates: [  0.166666667048197,  0.833333333637857,  0.333333333667541 ]
    mass: 28.085500
    reduced_to: 1
  - symbol: Si # 107
    coordinates: [  0.166666667048197,  0.000000000304523,  0.500000000334208 ]
    mass: 28.085500
    reduced_to: 1
  - symbol: Si # 108
    coordinates: [  0.166666667048197,  0.166666666971190,  0.666666667000875 ]
    mass: 28.085500
    reduced_to: 1
  - symbol: Si # 109
    coordinates: [  0.083333333146243,  0.083333332954500,  0.083333332967379 ]
    mass: 28.085500
    reduced_to: 109
  - symbol: Si # 110
    coordinates: [  0.083333333146243,  0.249999999621166,  0.249999999634045 ]
    mass: 28.085500
    reduced_to: 109
  - symbol: Si # 111
    coordinates: [  0.083333333146243,  0.416666666287833,  0.416666666300712 ]
    mass: 28.085500
    reduced_to: 109
  - symbol: Si # 112
    coordinates: [  0.083333333146243,  0.583333332954500,  0.583333332967379 ]
    mass: 28.085500
    reduced_to: 109
  - symbol: Si # 113
    coordinates: [  0.083333333146243,  0.749999999621166,  0.749999999634045 ]
    mass: 28.085500
    reduced_to: 109
  - symbol: Si # 114
    coordinates: [  0.083333333146243,  0.916666666287833,  0.916666666300712 ]
    mass: 28.085500
    reduced_to: 109
  - symbol: Si # 115
    coordinates: [  0.249999999812910,  0.083333332954500,  0.249999999634045 ]
    mass: 28.085500
    reduced_to: 109
  - symbol: Si # 116
    coordinates: [  0.249999999812910,  0.249999999621166,  0.416666666300712 ]
    mass: 28.085500
    reduced_to: 109
  - symbol: Si # 117
    coordinates: [  0.249999999812910,  0.416666666287833,  0.583333332967379 ]
    mass: 28.085500
    reduced_to: 109
  - symbol: Si # 118
    coordinates: [  0.249999999812910,  0.583333332954500,  0.749999999634045 ]
    mass: 28.085500
    reduced_to: 109
  - symbol: Si # 119
    coordinates: [  0.249999999812910,  0.749999999621166,  0.916666666300712 ]
    mass: 28.085500
    reduced_to: 109
  - symbol: Si # 120
    coordinates: [  0.249999999812910,  0.916666666287833,  0.083333332967378 ]
    mass: 28.085500
    reduced_to: 109
  - symbol: Si # 121
    coordinates: [  0.416666666479576,  0.083333332954500,  0.416666666300712 ]
    mass: 28.085500
    reduced_to: 109
  - symbol: Si # 122
    coordinates: [  0.416666666479576,  0.249999999621166,  0.583333332967379 ]
    mass: 28.085500
    reduced_to: 109
  - symbol: Si # 123
    coordinates: [  0.416666666479576,  0.416666666287833,  0.749999999634045 ]
    mass: 28.085500
    reduced_to: 109
  - symbol: Si # 124
    coordinates: [  0.416666666479576,  0.583333332954500,  0.916666666300712 ]
    mass: 28.085500
    reduced_to: 109
  - symbol: Si # 125
    coordinates: [  0.416666666479576,  0.749999999621166,  0.083333332967378 ]
    mass: 28.085500
    reduced_to: 109
  - symbol: Si # 126
    coordinates: [  0.416666666479576,  0.916666666287833,  0.249999999634045 ]
    mass: 28.085500
    reduced_to: 109
  - symbol: Si # 127
    coordinates: [  0.583333333146243,  0.083333332954500,  0.583333332967379 ]
    mass: 28.085500
    reduced_to: 109
  - symbol: Si # 128
    coordinates: [  0.583333333146243,  0.249999999621166,  0.749999999634045 ]
    mass: 28.085500
    reduced_to: 109
  - symbol: Si # 129
    coordinates: [  0.583333333146243,  0.416666666287833,  0.916666666300712 ]
    mass: 28.085500
    reduced_to: 109
  - symbol: Si # 130
    coordinates: [  0.583333333146243,  0.583333332954500,  0.083333332967378 ]
    mass: 28.085500
    reduced_to: 109
  - symbol: Si # 131
    coordinates: [  0.583333333146243,  0.749999999621166,  0.249999999634045 ]
    mass: 28.085500
    reduced_to: 109
  - symbol: Si # 132
    coordinates: [  0.583333333146243,  0.916666666287833,  0.416666666300712 ]
    mass: 28.085500
    reduced_to: 109
  - symbol: Si # 133
    coordinates: [  0.749999999812910,  0.083333332954500,  0.749999999634045 ]
    mass: 28.085500
    reduced_to: 109
  - symbol: Si # 134
    coordinates: [  0.749999999812910,  0.249999999621166,  0.916666666300712 ]
    mass: 28.085500
    reduced_to: 109
  - symbol: Si # 135
    coordinates: [  0.749999999812910,  0.416666666287833,  0.083333332967378 ]
    mass: 28.085500
    reduced_to: 109
  - symbol: Si # 136
    coordinates: [  0.749999999812910,  0.583333332954500,  0.249999999634045 ]
    mass: 28.085500
    reduced_to: 109
  - symbol: Si # 137
    coordinates: [  0.749999999812910,  0.749999999621166,  0.416666666300712 ]
    mass: 28.085500
    reduced_to: 109
  - symbol: Si # 138
    coordinates: [  0.749999999812910,  0.916666666287833,  0.583333332967378 ]
    mass: 28.085500
    reduced_to: 109
  - symbol: Si # 139
    coordinates: [  0.916666666479576,  0.083333332954500,  0.916666666300712 ]
    mass: 28.085500
    reduced_to: 109
  - symbol: Si # 140
    coordinates: [  0.916666666479576,  0.249999999621166,  0.083333332967378 ]
    mass: 28.085500
    reduced_to: 109
  - symbol: Si # 141
    coordinates: [  0.916666666479576,  0.416666666287833,  0.249999999634045 ]
    mass: 28.085500
    reduced_to: 109
  - symbol: Si # 142
    coordinates: [  0.916666666479576,  0.583333332954500,  0.416666666300712 ]
    mass: 28.085500
    reduced_to: 109
  - symbol: Si # 143
    coordinates: [  0.916666666479576,  0.749999999621166,  0.583333332967378 ]
    mass: 28.085500
    reduced_to: 109
  - symbol: Si # 144
    coordinates: [  0.916666666479576,  0.916666666287833,  0.749999999634045 ]
    mass: 28.085500
    reduced_to: 109
  - symbol: Si # 145
    coordinates: [  0.249999999812910,  0.249999999621166,  0.083333332967379 ]
    mass: 28.085500
    reduced_to: 109
  - symbol: Si # 146
    coordinates: [  0.249999999812910,  0.416666666287833,  0.249999999634045 ]
    mass: 28.085500
    reduced_to: 109
  - symbol: Si # 147
    coordinates: [  0.249999999812910,  0.583333332954500,  0.416666666300712 ]
    mass: 28.085500
    reduced_to: 109
  - symbol: Si # 148
    coordinates: [  0.249999999812910,  0.749999999621166,  0.583333332967379 ]
    mass: 28.085500
    reduced_to: 109
  - symbol: Si # 149
    coordinates: [  0.249999999812910,  0.916666666287833,  0.749999999634045 ]
    mass: 28.085500
    reduced_to: 109
  - symbol: Si # 150
    coordinates: [  0.249999999812910,  0.083333332954500,  0.916666666300712 ]
    mass: 28.085500
    reduced_to: 109
  - symbol: Si # 151
    coordinates: [  0.416666666479577,  0.249999999621166,  0.249999999634045 ]
    mass: 28.085500
    reduced_to: 109
  - symbol: Si # 152
    coordinates: [  0.416666666479577,  0.416666666287833,  0.416666666300712 ]
    mass: 28.085500
    reduced_to: 109
  - symbol: Si # 153
    coordinates: [  0.416666666479577,  0.583333332954500,  0.583333332967379 ]
    mass: 28.085500
    reduced_to: 109
  - symbol: Si # 154
    coordinates: [  0.416666666479577,  0.749999999621166,  0.749999999634045 ]
    mass: 28.085500
    reduced_to: 109
  - symbol: Si # 155
    coordinates: [  0.416666666479577,  0.916666666287833,  0.916666666300712 ]
    mass: 28.085500
    reduced_to: 109
  - symbol: Si # 156
    coordinates: [  0.416666666479577,  0.083333332954500,  0.083333332967378 ]
    mass: 28.085500
    reduced_to: 109
  - symbol: Si # 157
    coordinates: [  0.583333333146243,  0.249999999621166,  0.416666666300712 ]
    mass: 28.085500
    reduced_to: 109
  - symbol: Si # 158
    coordinates: [  0.583333333146243,  0.416666666287833,  0.583333332967379 ]
    mass: 28.085500
    reduced_to: 109
  - symbol: Si # 159
    coordinates: [  0.583333333146243,  0.583333332954500,  0.749999999634045 ]
    mass: 28.085500
    reduced_to: 109
  - symbol: Si # 160
    coordinates: [  0.583333333146243,  0.749999999621166,  0.916666666300712 ]
    mass: 28.085500
    reduced_to: 109
  - symbol: Si # 161
    coordinates: [  0.583333333146243,  0.916666666287833,  0.083333332967378 ]
    mass: 28.085500
    reduced_to: 109
  - symbol: Si # 162
    coordinates: [  0.583333333146243,  0.083333332954500,  0.249999999634045 ]
    mass: 28.085500
    reduced_to: 109
  - symbol: Si # 163
    coordinates: [  0.749999999812910,  0.249999999621166,  0.583333332967379 ]
    mass: 28.085500
    reduced_to: 109
  - symbol: Si # 164
    coordinates: [  0.749999999812910,  0.416666666287833,  0.749999999634045 ]
    mass: 28.085500
    reduced_to: 109
  - symbol: Si # 165
    coordinates: [  0.749999999812910,  0.583333332954500,  0.916666666300712 ]
    mass: 28.085500
    reduced_to: 109
  - symbol: Si # 166
    coordinates: [  0.749999999812910,  0.749999999621166,  0.083333332967378 ]
    mass: 28.085500
    reduced_to: 109
  - symbol: Si # 167
    coordinates: [  0.749999999812910,  0.916666666287833,  0.249999999634045 ]
    mass: 28.085500
    reduced_to: 109
  - symbol: Si # 168
    coordinates: [  0.749999999812910,  0.083333332954500,  0.416666666300712 ]
    mass: 28.085500
    reduced_to: 109
  - symbol: Si # 169
    coordinates: [  0.916666666479576,  0.249999999621166,  0.749999999634045 ]
    mass: 28.085500
    reduced_to: 109
  - symbol: Si # 170
    coordinates: [  0.916666666479576,  0.416666666287833,  0.916666666300712 ]
    mass: 28.085500
    reduced_to: 109
  - symbol: Si # 171
    coordinates: [  0.916666666479576,  0.583333332954500,  0.083333332967378 ]
    mass: 28.085500
    reduced_to: 109
  - symbol: Si # 172
    coordinates: [  0.916666666479576,  0.749999999621166,  0.249999999634045 ]
    mass: 28.085500
    reduced_to: 109
  - symbol: Si # 173
    coordinates: [  0.916666666479576,  0.916666666287833,  0.416666666300712 ]
    mass: 28.085500
    reduced_to: 109
  - symbol: Si # 174
    coordinates: [  0.916666666479576,  0.083333332954500,  0.583333332967378 ]
    mass: 28.085500
    reduced_to: 109
  - symbol: Si # 175
    coordinates: [  0.083333333146243,  0.249999999621166,  0.916666666300712 ]
    mass: 28.085500
    reduced_to: 109
  - symbol: Si # 176
    coordinates: [  0.083333333146243,  0.416666666287833,  0.083333332967378 ]
    mass: 28.085500
    reduced_to: 109
  - symbol: Si # 177
    coordinates: [  0.083333333146243,  0.583333332954500,  0.249999999634045 ]
    mass: 28.085500
    reduced_to: 109
  - symbol: Si # 178
    coordinates: [  0.083333333146243,  0.749999999621166,  0.416666666300712 ]
    mass: 28.085500
    reduced_to: 109
  - symbol: Si # 179
    coordinates: [  0.083333333146243,  0.916666666287833,  0.583333332967378 ]
    mass: 28.085500
    reduced_to: 109
  - symbol: Si # 180
    coordinates: [  0.083333333146243,  0.083333332954500,  0.749999999634045 ]
    mass: 28.085500
    reduced_to: 109
  - symbol: Si # 181
    coordinates: [  0.416666666479577,  0.416666666287833,  0.083333332967379 ]
    mass: 28.085500
    reduced_to: 109
  - symbol: Si # 182
    coordinates: [  0.416666666479577,  0.583333332954500,  0.249999999634045 ]
    mass: 28.085500
    reduced_to: 109
  - symbol: Si # 183
    coordinates: [  0.416666666479577,  0.749999999621166,  0.416666666300712 ]
    mass: 28.085500
    reduced_to: 109
  - symbol: Si # 184
    coordinates: [  0.416666666479577,  0.916666666287833,  0.583333332967379 ]
    mass: 28.085500
    reduced_to: 109
  - symbol: Si # 185
    coordinates: [  0.416666666479577,  0.083333332954500,  0.749999999634045 ]
    mass: 28.085500
    reduced_to: 109
  - symbol: Si # 186
    coordinates: [  0.416666666479577,  0.249999999621166,  0.916666666300712 ]
    mass: 28.085500
    reduced_to: 109
  - symbol: Si # 187
    coordinates: [  0.583333333146243,  0.416666666287833,  0.249999999634045 ]
    mass: 28.085500
    reduced_to: 109
  - symbol: Si # 188
    coordinates: [  0.583333333146243,  0.583333332954500,  0.416666666300712 ]
    mass: 28.085500
    reduced_to: 109
  - symbol: Si # 189
    coordinates: [  0.583333333146243,  0.749999999621166,  0.583333332967379 ]
    mass: 28.085500
    reduced_to: 109
  - symbol: Si # 190
    coordinates: [  0.583333333146243,  0.916666666287833,  0.749999999634045 ]
    mass: 28.085500
    reduced_to: 109
  - symbol: Si # 191
    coordinates: [  0.583333333146243,  0.083333332954500,  0.916666666300712 ]
    mass: 28.085500
    reduced_to: 109
  - symbol: Si # 192
    coordinates: [  0.583333333146243,  0.249999999621166,  0.083333332967378 ]
    mass: 28.085500
    reduced_to: 109
  - symbol: Si # 193
    coordinates: [  0.749999999812910,  0.416666666287833,  0.416666666300712 ]
    mass: 28.085500
    reduced_to: 109
  - symbol: Si # 194
    coordinates: [  0.749999999812910,  0.583333332954500,  0.583333332967379 ]
    mass: 28.085500
    reduced_to: 109
  - symbol: Si # 195
    coordinates: [  0.749999999812910,  0.749999999621166,  0.749999999634045 ]
    mass: 28.085500
    reduced_to: 109
  - symbol: Si # 196
    coordinates: [  0.749999999812910,  0.916666666287833,  0.916666666300712 ]
    mass: 28.085500
    reduced_to: 109
  - symbol: Si # 197
    coordinates: [  0.749999999812910,  0.083333332954500,  0.083333332967378 ]
    mass: 28.085500
    reduced_to: 109
  - symbol: Si # 198
    coordinates: [  0.749999999812910,  0.249999999621166,  0.249999999634045 ]
    mass: 28.085500
    reduced_to: 109
  - symbol: Si # 199
    coordinates: [  0.916666666479576,  0.416666666287833,  0.583333332967379 ]
    mass: 28.085500
    reduced_to: 109
  - symbol: Si # 200
    coordinates: [  0.916666666479576,  0.583333332954500,  0.749999999634045 ]
    mass: 28.085500
    reduced_to: 109
  - symbol: Si # 201